                         Program Version 3.0.3 - RELEASE   -
|  1> # ----------------------------------------------------------------
|  2> #            Orca input file - butane
|  3> # ----------------------------------------------------------------
|  4> ! opt HF
|  5> !  3-21G CHELPG
|  6> * xyz   0   1
|  7> C  -8.552000 1.288900 0.012900
|  8> C  -7.260500 2.099900 0.066500
|  9> H  -8.627300 0.745300 -0.952900
| 10> H  -9.423600 1.970400 0.106400
| 11> H  -8.582300 0.556500 0.847600
| 12> C  -6.032200 1.192200 -0.061800
| 13> H  -7.221500 2.647800 1.033300
| 14> H  -7.266200 2.840000 -0.763300
| 15> C  -4.740500 2.002400 -0.000900
| 16> H  -4.708300 2.741400 -0.829600
| 17> H  -3.868900 1.321300 -0.097600
| 18> H  -4.666900 2.538300 0.969500
| 19> H  -6.069600 0.647900 -1.030700
| 20> H  -6.028100 0.449000 0.765200
| 21> *
| 22>
| 23>                          ****END OF INPUT****
 Total Charge           Charge          ....    0
 Multiplicity           Mult            ....    1
 Number of Electrons    NEL             ....   34
FINAL SINGLE POINT ENERGY      -156.427054155315
FINAL SINGLE POINT ENERGY      -156.432414979601
FINAL SINGLE POINT ENERGY      -156.432456639976
FINAL SINGLE POINT ENERGY      -156.432466103987
                    ***********************HURRAY********************

CARTESIAN COORDINATES (ANGSTROEM)
---------------------------------
  C     -8.578583    1.288614    0.012439
  C     -7.267523    2.096514    0.068141
  H     -8.656023    0.752085   -0.927411
  H     -9.441901    1.938659    0.103128
  H     -8.614219    0.563912    0.819105
  C     -6.025055    1.195198   -0.059814
  H     -7.217011    2.642317    1.005466
  H     -7.259233    2.830634   -0.731876
  C     -4.713958    2.002926   -0.002523
  H     -4.678393    2.729451   -0.807555
  H     -3.850678    1.353055   -0.094814
  H     -4.636379    2.537325    0.938525
  H     -6.075051    0.650308   -0.997697
  H     -6.033892    0.460303    0.739486

 Multiplicity           Mult            ....    1
 Number of Electrons    NEL             ....   34
 Basis Dimension        Dim             ....   56

ORBITAL ENERGIES
----------------

  NO   OCC          E(Eh)            E(eV)
   0   2.0000     -11.157484      -303.6106
   1   2.0000     -11.157287      -303.6052
   2   2.0000     -11.149354      -303.3893
   3   2.0000     -11.149166      -303.3842
   4   2.0000      -1.070299       -29.1243
   5   2.0000      -0.981872       -26.7181
   6   2.0000      -0.864249       -23.5174
   7   2.0000      -0.792229       -21.5576
   8   2.0000      -0.641991       -17.4695
   9   2.0000      -0.585470       -15.9314
  10   2.0000      -0.573489       -15.6054
  11   2.0000      -0.569982       -15.5100
  12   2.0000      -0.513696       -13.9784
  13   2.0000      -0.496235       -13.5032
  14   2.0000      -0.463400       -12.6098
  15   2.0000      -0.460662       -12.5352
  16   2.0000      -0.449909       -12.2426
  17   0.0000       0.265496         7.2245
  18   0.0000       0.297229         8.0880
  19   0.0000       0.308906         8.4058
  20   0.0000       0.324503         8.8302
  21   0.0000       0.347356         9.4520

MULLIKEN ATOMIC CHARGES
-----------------------
   0 C :   -0.582763
   1 C :   -0.417708
   2 H :    0.197325
   3 H :    0.199245
   4 H :    0.197330
   5 C :   -0.417708
   6 H :    0.203284
   7 H :    0.203286
   8 C :   -0.582763
   9 H :    0.197325
  10 H :    0.199245
  11 H :    0.197330
  12 H :    0.203286
  13 H :    0.203284
Sum of atomic charges:   -0.0000000

LOEWDIN ATOMIC CHARGES
----------------------
   0 C :   -0.256919
   1 C :   -0.160204
   2 H :    0.085173
   3 H :    0.086386
   4 H :    0.085174
   5 C :   -0.160204
   6 H :    0.080193
   7 H :    0.080197
   8 C :   -0.256919
   9 H :    0.085173
  10 H :    0.086386
  11 H :    0.085174
  12 H :    0.080197
  13 H :    0.080193

  Mayer bond orders larger than 0.1
B(  0-C ,  1-C ) :   0.9229 B(  0-C ,  2-H ) :   0.9284 B(  0-C ,  3-H ) :   0.9319
B(  0-C ,  4-H ) :   0.9284 B(  1-C ,  5-C ) :   0.9041 B(  1-C ,  6-H ) :   0.9228
B(  1-C ,  7-H ) :   0.9228 B(  5-C ,  8-C ) :   0.9229 B(  5-C , 12-H ) :   0.9228
B(  5-C , 13-H ) :   0.9228 B(  8-C ,  9-H ) :   0.9284 B(  8-C , 10-H ) :   0.9319
B(  8-C , 11-H ) :   0.9284

FINAL SINGLE POINT ENERGY      -156.432466628327

DIPOLE MOMENT
-------------
                                X             Y             Z
Electronic contribution:     -0.00001       0.00007      -0.00060
Nuclear contribution   :      0.00001      -0.00006       0.00058
                        -----------------------------------------
Total Dipole Moment    :     -0.00000       0.00000      -0.00002
                        -----------------------------------------
Magnitude (a.u.)       :      0.00002
Magnitude (Debye)      :      0.00006

                             ****ORCA TERMINATED NORMALLY****
TOTAL RUN TIME: 0 days 0 hours 0 minutes 13 seconds 964 msec
