                         Program Version 3.0.3 - RELEASE   -
|  1> # ----------------------------------------------------------------
|  2> #            Orca input file - butane
|  3> # ----------------------------------------------------------------
|  4> ! B3LYP
|  5> !  6-31G CHELPG
|  6> * xyz   0   1
|  7> C  -8.552000 1.288900 0.012900
|  8> C  -7.260500 2.099900 0.066500
|  9> H  -8.627300 0.745300 -0.952900
| 10> H  -9.423600 1.970400 0.106400
| 11> H  -8.582300 0.556500 0.847600
| 12> C  -6.032200 1.192200 -0.061800
| 13> H  -7.221500 2.647800 1.033300
| 14> H  -7.266200 2.840000 -0.763300
| 15> C  -4.740500 2.002400 -0.000900
| 16> H  -4.708300 2.741400 -0.829600
| 17> H  -3.868900 1.321300 -0.097600
| 18> H  -4.666900 2.538300 0.969500
| 19> H  -6.069600 0.647900 -1.030700
| 20> H  -6.028100 0.449000 0.765200
| 21> *
| 22>
| 23>                          ****END OF INPUT****

CARTESIAN COORDINATES (ANGSTROEM)
---------------------------------
  C     -8.552000    1.288900    0.012900
  C     -7.260500    2.099900    0.066500
  H     -8.627300    0.745300   -0.952900
  H     -9.423600    1.970400    0.106400
  H     -8.582300    0.556500    0.847600
  C     -6.032200    1.192200   -0.061800
  H     -7.221500    2.647800    1.033300
  H     -7.266200    2.840000   -0.763300
  C     -4.740500    2.002400   -0.000900
  H     -4.708300    2.741400   -0.829600
  H     -3.868900    1.321300   -0.097600
  H     -4.666900    2.538300    0.969500
  H     -6.069600    0.647900   -1.030700
  H     -6.028100    0.449000    0.765200

 Total Charge           Charge          ....    0
 Multiplicity           Mult            ....    1
 Number of Electrons    NEL             ....   34
 Basis Dimension        Dim             ....   56

ORBITAL ENERGIES
----------------

  NO   OCC          E(Eh)            E(eV)
   0   2.0000     -10.169727      -276.7323
   1   2.0000     -10.169592      -276.7287
   2   2.0000     -10.163532      -276.5638
   3   2.0000     -10.163520      -276.5634
   4   2.0000      -0.789287       -21.4776
   5   2.0000      -0.716835       -19.5061
   6   2.0000      -0.617367       -16.7994
   7   2.0000      -0.565911       -15.3992
   8   2.0000      -0.465521       -12.6675
   9   2.0000      -0.420354       -11.4384
  10   2.0000      -0.408462       -11.1148
  11   2.0000      -0.405627       -11.0377
  12   2.0000      -0.359290        -9.7768
  13   2.0000      -0.342862        -9.3298
  14   2.0000      -0.324457        -8.8289
  15   2.0000      -0.318042        -8.6544
  16   2.0000      -0.309725        -8.4280
  17   0.0000       0.091688         2.4949
  18   0.0000       0.120006         3.2655
  19   0.0000       0.130238         3.5439
  20   0.0000       0.143158         3.8955
  21   0.0000       0.169372         4.6088

MULLIKEN ATOMIC CHARGES
-----------------------
   0 C :   -0.394939
   1 C :   -0.227905
   2 H :    0.127069
   3 H :    0.125228
   4 H :    0.128161
   5 C :   -0.228050
   6 H :    0.119736
   7 H :    0.122681
   8 C :   -0.394872
   9 H :    0.128200
  10 H :    0.125213
  11 H :    0.127008
  12 H :    0.119755
  13 H :    0.122714
Sum of atomic charges:    0.0000000

LOEWDIN ATOMIC CHARGES
----------------------
   0 C :   -0.312021
   1 C :   -0.193629
   2 H :    0.103152
   3 H :    0.103985
   4 H :    0.103439
   5 C :   -0.193660
   6 H :    0.097129
   7 H :    0.097951
   8 C :   -0.312010
   9 H :    0.103457
  10 H :    0.103968
  11 H :    0.103135
  12 H :    0.097159
  13 H :    0.097946

  Mayer bond orders larger than 0.1
B(  0-C ,  1-C ) :   0.9676 B(  0-C ,  2-H ) :   0.9556 B(  0-C ,  3-H ) :   0.9553
B(  0-C ,  4-H ) :   0.9555 B(  1-C ,  5-C ) :   0.9685 B(  1-C ,  6-H ) :   0.9482
B(  1-C ,  7-H ) :   0.9479 B(  5-C ,  8-C ) :   0.9677 B(  5-C , 12-H ) :   0.9482
B(  5-C , 13-H ) :   0.9479 B(  8-C ,  9-H ) :   0.9554 B(  8-C , 10-H ) :   0.9553
B(  8-C , 11-H ) :   0.9556

FINAL SINGLE POINT ENERGY      -158.294712093299

DIPOLE MOMENT
-------------
                                X             Y             Z
Electronic contribution:     -0.00032       0.00048      -0.00478
Nuclear contribution   :      0.00023      -0.00047       0.00477
                        -----------------------------------------
Total Dipole Moment    :     -0.00009       0.00001      -0.00001
                        -----------------------------------------
Magnitude (a.u.)       :      0.00009
Magnitude (Debye)      :      0.00022

                             ****ORCA TERMINATED NORMALLY****
TOTAL RUN TIME: 0 days 0 hours 0 minutes 3 seconds 332 msec
