                         Program Version 3.0.3 - RELEASE   -
|  1> # ----------------------------------------------------------------
|  2> #            Orca input file - butane
|  3> # ----------------------------------------------------------------
|  4> ! B3LYP
|  5> !  6-31G CHELPG
|  6> * xyz   0   1
|  7> C  -8.552000 1.288900 0.012900
|  8> C  -7.260500 2.099900 0.066500
|  9> H  -8.627300 0.745300 -0.952900
| 10> H  -9.423600 1.970400 0.106400
| 11> H  -8.582300 0.556500 0.847600
| 12> C  -6.032200 1.192200 -0.061800
| 13> H  -7.221500 2.647800 1.033300
| 14> H  -7.266200 2.840000 -0.763300
| 15> C  -4.740500 2.002400 -0.000900
| 16> H  -4.708300 2.741400 -0.829600
| 17> H  -3.868900 1.321300 -0.097600
| 18> H  -4.666900 2.538300 0.969500
| 19> H  -6.069600 0.647900 -1.030700
| 20> H  -6.028100 0.449000 0.765200
| 21> *
| 22>
| 23>                          ****END OF INPUT****

CARTESIAN COORDINATES (ANGSTROEM)
---------------------------------
  C     -8.552000    1.288900    0.012900
  C     -7.260500    2.099900    0.066500
  H     -8.627300    0.745300   -0.952900
  H     -9.423600    1.970400    0.106400
  H     -8.582300    0.556500    0.847600
  C     -6.032200    1.192200   -0.061800
  H     -7.221500    2.647800    1.033300
  H     -7.266200    2.840000   -0.763300
  C     -4.740500    2.002400   -0.000900
  H     -4.708300    2.741400   -0.829600
  H     -3.868900    1.321300   -0.097600
  H     -4.666900    2.538300    0.969500
  H     -6.069600    0.647900   -1.030700
  H     -6.028100    0.449000    0.765200

 Total Charge           Charge          ....    0
 Multiplicity           Mult            ....    1
 Number of Electrons    NEL             ....   34
 Basis Dimension        Dim             ....   56

ORBITAL ENERGIES
----------------

  NO   OCC          E(Eh)            E(eV)
   0   2.0000     -10.169613      -276.7292
   1   2.0000     -10.169479      -276.7256
   2   2.0000     -10.163621      -276.5662
   3   2.0000     -10.163608      -276.5658
   4   2.0000      -0.789261       -21.4769
   5   2.0000      -0.716843       -19.5063
   6   2.0000      -0.617369       -16.7995
   7   2.0000      -0.565891       -15.3987
   8   2.0000      -0.465502       -12.6670
   9   2.0000      -0.420351       -11.4383
  10   2.0000      -0.408466       -11.1149
  11   2.0000      -0.405635       -11.0379
  12   2.0000      -0.359297        -9.7770
  13   2.0000      -0.342866        -9.3299
  14   2.0000      -0.324443        -8.8286
  15   2.0000      -0.318023        -8.6539
  16   2.0000      -0.309708        -8.4276
  17   0.0000       0.091693         2.4951
  18   0.0000       0.120000         3.2654
  19   0.0000       0.130246         3.5442
  20   0.0000       0.143165         3.8957
  21   0.0000       0.169365         4.6086

MULLIKEN ATOMIC CHARGES
-----------------------
   0 C :   -0.394776
   1 C :   -0.228069
   2 H :    0.127043
   3 H :    0.125205
   4 H :    0.128135
   5 C :   -0.228214
   6 H :    0.119775
   7 H :    0.122720
   8 C :   -0.394710
   9 H :    0.128174
  10 H :    0.125190
  11 H :    0.126982
  12 H :    0.119794
  13 H :    0.122752
Sum of atomic charges:   -0.0000000

LOEWDIN ATOMIC CHARGES
----------------------
   0 C :   -0.311892
   1 C :   -0.193757
   2 H :    0.103131
   3 H :    0.103967
   4 H :    0.103418
   5 C :   -0.193789
   6 H :    0.097158
   7 H :    0.097980
   8 C :   -0.311881
   9 H :    0.103437
  10 H :    0.103951
  11 H :    0.103114
  12 H :    0.097188
  13 H :    0.097975

  Mayer bond orders larger than 0.1
B(  0-C ,  1-C ) :   0.9676 B(  0-C ,  2-H ) :   0.9556 B(  0-C ,  3-H ) :   0.9553
B(  0-C ,  4-H ) :   0.9555 B(  1-C ,  5-C ) :   0.9684 B(  1-C ,  6-H ) :   0.9482
B(  1-C ,  7-H ) :   0.9479 B(  5-C ,  8-C ) :   0.9677 B(  5-C , 12-H ) :   0.9482
B(  5-C , 13-H ) :   0.9479 B(  8-C ,  9-H ) :   0.9554 B(  8-C , 10-H ) :   0.9553
B(  8-C , 11-H ) :   0.9556

FINAL SINGLE POINT ENERGY      -158.294712122407

DIPOLE MOMENT
-------------
                                X             Y             Z
Electronic contribution:     -0.00032       0.00048      -0.00478
Nuclear contribution   :      0.00023      -0.00047       0.00477
                        -----------------------------------------
Total Dipole Moment    :     -0.00009       0.00001      -0.00001
                        -----------------------------------------
Magnitude (a.u.)       :      0.00009
Magnitude (Debye)      :      0.00022

                             ****ORCA TERMINATED NORMALLY****
TOTAL RUN TIME: 0 days 0 hours 0 minutes 3 seconds 490 msec
