                         Program Version 3.0.3 - RELEASE   -
|  1> # ----------------------------------------------------------------
|  2> #            Orca input file - etanol
|  3> # ----------------------------------------------------------------
|  4> ! B3LYP
|  5> !  6-31G CHELPG
|  6> * xyz   0   1
|  7> C  -3.367800 2.090300 -0.105800
|  8> C  -1.846200 2.164200 -0.127400
|  9> O  -3.801700 1.203200 0.889000
| 10> H  -3.759500 1.779500 -1.100600
| 11> H  -3.779700 3.097700 0.114200
| 12> H  -3.623300 0.287300 0.550300
| 13> H  -1.419400 1.166300 -0.362600
| 14> H  -1.468200 2.498400 0.861900
| 15> H  -1.517200 2.887400 -0.903100
| 16> *
| 17>
| 18>                          ****END OF INPUT****

CARTESIAN COORDINATES (ANGSTROEM)
---------------------------------
  C     -3.367800    2.090300   -0.105800
  C     -1.846200    2.164200   -0.127400
  O     -3.801700    1.203200    0.889000
  H     -3.759500    1.779500   -1.100600
  H     -3.779700    3.097700    0.114200
  H     -3.623300    0.287300    0.550300
  H     -1.419400    1.166300   -0.362600
  H     -1.468200    2.498400    0.861900
  H     -1.517200    2.887400   -0.903100

 Total Charge           Charge          ....    0
 Multiplicity           Mult            ....    1
 Number of Electrons    NEL             ....   26
 Basis Dimension        Dim             ....   39

ORBITAL ENERGIES
----------------

  NO   OCC          E(Eh)            E(eV)
   0   2.0000     -19.133622      -520.6523
   1   2.0000     -10.225130      -278.2399
   2   2.0000     -10.171351      -276.7765
   3   2.0000      -1.026151       -27.9230
   4   2.0000      -0.742256       -20.1978
   5   2.0000      -0.616225       -16.7683
   6   2.0000      -0.504032       -13.7154
   7   2.0000      -0.451318       -12.2810
   8   2.0000      -0.419670       -11.4198
   9   2.0000      -0.378828       -10.3084
  10   2.0000      -0.364844        -9.9279
  11   2.0000      -0.309390        -8.4189
  12   2.0000      -0.258208        -7.0262
  13   0.0000       0.064171         1.7462
  14   0.0000       0.118837         3.2337
  15   0.0000       0.145634         3.9629
  16   0.0000       0.153907         4.1880
  17   0.0000       0.166406         4.5281

MULLIKEN ATOMIC CHARGES
-----------------------
   0 C :   -0.027200
   1 C :   -0.395078
   2 O :   -0.587241
   3 H :    0.112685
   4 H :    0.148255
   5 H :    0.351946
   6 H :    0.119324
   7 H :    0.151882
   8 H :    0.125426
Sum of atomic charges:   -0.0000000

LOEWDIN ATOMIC CHARGES
----------------------
   0 C :   -0.039108
   1 C :   -0.335989
   2 O :   -0.412537
   3 H :    0.078113
   4 H :    0.104960
   5 H :    0.279136
   6 H :    0.100044
   7 H :    0.117085
   8 H :    0.108295

  Mayer bond orders larger than 0.1
B(  0-C ,  1-C ) :   0.9467 B(  0-C ,  2-O ) :   0.8877 B(  0-C ,  3-H ) :   0.9356
B(  0-C ,  4-H ) :   0.9419 B(  1-C ,  6-H ) :   0.9558 B(  1-C ,  7-H ) :   0.9512
B(  1-C ,  8-H ) :   0.9416 B(  2-O ,  5-H ) :   0.8140

FINAL SINGLE POINT ENERGY      -154.890768066329

DIPOLE MOMENT
-------------
                                X             Y             Z
Electronic contribution:     -2.05956      -1.15963       1.41234
Nuclear contribution   :      2.38482       0.94459      -2.07042
                        -----------------------------------------
Total Dipole Moment    :      0.32526      -0.21504      -0.65807
                        -----------------------------------------
Magnitude (a.u.)       :      0.76492
Magnitude (Debye)      :      1.94427

                             ****ORCA TERMINATED NORMALLY****
TOTAL RUN TIME: 0 days 0 hours 0 minutes 1 seconds 698 msec
