                         Program Version 3.0.3 - RELEASE   -
|  1> # ----------------------------------------------------------------
|  2> #            Orca input file - etane
|  3> # ----------------------------------------------------------------
|  4> ! B3LYP
|  5> !  6-31G CHELPG
|  6> * xyz   0   1
|  7> C  -3.183100 2.154500 -0.151900
|  8> H  -2.072800 2.159200 -0.156700
|  9> C  -3.689500 1.156700 0.875500
| 10> H  -3.550100 1.874200 -1.161700
| 11> H  -3.550100 3.172100 0.098900
| 12> H  -3.322600 0.139100 0.624800
| 13> H  -4.799900 1.152000 0.880400
| 14> H  -3.322600 1.437100 1.885300
| 15> *
| 16>
| 17>                          ****END OF INPUT****

CARTESIAN COORDINATES (ANGSTROEM)
---------------------------------
  C     -3.183100    2.154500   -0.151900
  H     -2.072800    2.159200   -0.156700
  C     -3.689500    1.156700    0.875500
  H     -3.550100    1.874200   -1.161700
  H     -3.550100    3.172100    0.098900
  H     -3.322600    0.139100    0.624800
  H     -4.799900    1.152000    0.880400
  H     -3.322600    1.437100    1.885300

 Total Charge           Charge          ....    0
 Multiplicity           Mult            ....    1
 Number of Electrons    NEL             ....   18
 Basis Dimension        Dim             ....   30

ORBITAL ENERGIES
----------------

  NO   OCC          E(Eh)            E(eV)
   0   2.0000     -10.166140      -276.6347
   1   2.0000     -10.165996      -276.6308
   2   2.0000      -0.748765       -20.3749
   3   2.0000      -0.601983       -16.3808
   4   2.0000      -0.431132       -11.7317
   5   2.0000      -0.430934       -11.7263
   6   2.0000      -0.356228        -9.6935
   7   2.0000      -0.334756        -9.1092
   8   2.0000      -0.334551        -9.1036
   9   0.0000       0.100467         2.7338
  10   0.0000       0.159378         4.3369
  11   0.0000       0.161780         4.4022
  12   0.0000       0.162664         4.4263
  13   0.0000       0.185857         5.0574

MULLIKEN ATOMIC CHARGES
-----------------------
   0 C :   -0.394745
   1 H :    0.134498
   2 C :   -0.394749
   3 H :    0.129989
   4 H :    0.130268
   5 H :    0.130277
   6 H :    0.134476
   7 H :    0.129987
Sum of atomic charges:   -0.0000000

LOEWDIN ATOMIC CHARGES
----------------------
   0 C :   -0.313243
   1 H :    0.105247
   2 C :   -0.313243
   3 H :    0.103958
   4 H :    0.104045
   5 H :    0.104045
   6 H :    0.105235
   7 H :    0.103955

  Mayer bond orders larger than 0.1
B(  0-C ,  1-H ) :   0.9590 B(  0-C ,  2-C ) :   0.9743 B(  0-C ,  3-H ) :   0.9598
B(  0-C ,  4-H ) :   0.9598 B(  2-C ,  5-H ) :   0.9597 B(  2-C ,  6-H ) :   0.9590
B(  2-C ,  7-H ) :   0.9598

FINAL SINGLE POINT ENERGY       -79.745863471960

DIPOLE MOMENT
-------------
                                X             Y             Z
Electronic contribution:      0.00025      -0.00008      -0.00014
Nuclear contribution   :     -0.00022       0.00007       0.00015
                        -----------------------------------------
Total Dipole Moment    :      0.00002      -0.00000       0.00001
                        -----------------------------------------
Magnitude (a.u.)       :      0.00003
Magnitude (Debye)      :      0.00006

                             ****ORCA TERMINATED NORMALLY****
TOTAL RUN TIME: 0 days 0 hours 0 minutes 1 seconds 249 msec
