                         Program Version 3.0.3 - RELEASE   -
|  1> # ----------------------------------------------------------------
|  2> #            Orca input file - metane
|  3> # ----------------------------------------------------------------
|  4> ! B3LYP
|  5> !  6-31G CHELPG
|  6> * xyz   0   1
|  7> C  -3.258000 2.007000 0.000000
|  8> H  -2.188000 2.007000 0.000000
|  9> H  -3.614700 1.304200 0.723700
| 10> H  -3.614700 1.731700 -0.970500
| 11> H  -3.614700 2.985200 0.246800
| 12> *
| 13>
| 14>                          ****END OF INPUT****

CARTESIAN COORDINATES (ANGSTROEM)
---------------------------------
  C     -3.258000    2.007000    0.000000
  H     -2.188000    2.007000    0.000000
  H     -3.614700    1.304200    0.723700
  H     -3.614700    1.731700   -0.970500
  H     -3.614700    2.985200    0.246800

 Total Charge           Charge          ....    0
 Multiplicity           Mult            ....    1
 Number of Electrons    NEL             ....   10
 Basis Dimension        Dim             ....   17

ORBITAL ENERGIES
----------------

  NO   OCC          E(Eh)            E(eV)
   0   2.0000     -10.146674      -276.1050
   1   2.0000      -0.696521       -18.9533
   2   2.0000      -0.390398       -10.6233
   3   2.0000      -0.390295       -10.6205
   4   2.0000      -0.390247       -10.6192
   5   0.0000       0.125748         3.4218
   6   0.0000       0.185118         5.0373
   7   0.0000       0.185816         5.0563
   8   0.0000       0.187650         5.1062
   9   0.0000       0.536963        14.6115

MULLIKEN ATOMIC CHARGES
-----------------------
   0 C :   -0.581195
   1 H :    0.146485
   2 H :    0.145446
   3 H :    0.144618
   4 H :    0.144646
Sum of atomic charges:   -0.0000000

LOEWDIN ATOMIC CHARGES
----------------------
   0 C :   -0.465315
   1 H :    0.116434
   2 H :    0.116350
   3 H :    0.116253
   4 H :    0.116278

  Mayer bond orders larger than 0.1
B(  0-C ,  1-H ) :   0.9671 B(  0-C ,  2-H ) :   0.9675 B(  0-C ,  3-H ) :   0.9682
B(  0-C ,  4-H ) :   0.9682

FINAL SINGLE POINT ENERGY       -40.473205620278

DIPOLE MOMENT
-------------
                                X             Y             Z
Electronic contribution:     -0.00160       0.00054      -0.00052
Nuclear contribution   :     -0.00007       0.00007       0.00000
                        -----------------------------------------
Total Dipole Moment    :     -0.00167       0.00061      -0.00052
                        -----------------------------------------
Magnitude (a.u.)       :      0.00185
Magnitude (Debye)      :      0.00471

                             ****ORCA TERMINATED NORMALLY****
TOTAL RUN TIME: 0 days 0 hours 0 minutes 0 seconds 691 msec
