                         Program Version 3.0.3 - RELEASE   -
|  1> # ----------------------------------------------------------------
|  2> #            Orca input file - metylamine
|  3> # ----------------------------------------------------------------
|  4> ! B3LYP
|  5> !  6-31G CHELPG
|  6> * xyz   0   1
|  7> C  -3.191900 2.116100 -0.128200
|  8> H  -2.080400 2.126000 -0.116900
|  9> N  -3.679300 1.232000 0.839200
| 10> H  -3.575100 1.837500 -1.133700
| 11> H  -3.549700 3.139400 0.107600
| 12> H  -3.355300 0.287600 0.630800
| 13> H  -4.699100 1.250500 0.833700
| 14> *
| 15>
| 16>                          ****END OF INPUT****

CARTESIAN COORDINATES (ANGSTROEM)
---------------------------------
  C     -3.191900    2.116100   -0.128200
  H     -2.080400    2.126000   -0.116900
  N     -3.679300    1.232000    0.839200
  H     -3.575100    1.837500   -1.133700
  H     -3.549700    3.139400    0.107600
  H     -3.355300    0.287600    0.630800
  H     -4.699100    1.250500    0.833700

 Total Charge           Charge          ....    0
 Multiplicity           Mult            ....    1
 Number of Electrons    NEL             ....   18
 Basis Dimension        Dim             ....   28

ORBITAL ENERGIES
----------------

  NO   OCC          E(Eh)            E(eV)
   0   2.0000     -14.295258      -388.9937
   1   2.0000     -10.190584      -277.2999
   2   2.0000      -0.892600       -24.2889
   3   2.0000      -0.646487       -17.5918
   4   2.0000      -0.497096       -13.5267
   5   2.0000      -0.437751       -11.9118
   6   2.0000      -0.405942       -11.0462
   7   2.0000      -0.357260        -9.7215
   8   2.0000      -0.207873        -5.6565
   9   0.0000       0.081254         2.2110
  10   0.0000       0.144616         3.9352
  11   0.0000       0.146859         3.9962
  12   0.0000       0.175241         4.7686
  13   0.0000       0.186165         5.0658

MULLIKEN ATOMIC CHARGES
-----------------------
   0 C :   -0.273510
   1 H :    0.146649
   2 N :   -0.652970
   3 H :    0.099074
   4 H :    0.143406
   5 H :    0.267448
   6 H :    0.269903
Sum of atomic charges:   -0.0000000

LOEWDIN ATOMIC CHARGES
----------------------
   0 C :   -0.226607
   1 H :    0.107180
   2 N :   -0.442755
   3 H :    0.065643
   4 H :    0.104684
   5 H :    0.195223
   6 H :    0.196631

  Mayer bond orders larger than 0.1
B(  0-C ,  1-H ) :   0.9529 B(  0-C ,  2-N ) :   0.9396 B(  0-C ,  3-H ) :   0.9423
B(  0-C ,  4-H ) :   0.9540 B(  2-N ,  5-H ) :   0.8815 B(  2-N ,  6-H ) :   0.8810

FINAL SINGLE POINT ENERGY       -95.751793469676

DIPOLE MOMENT
-------------
                                X             Y             Z
Electronic contribution:     -0.26934      -0.58357       0.74519
Nuclear contribution   :      0.00809       0.34373      -1.28738
                        -----------------------------------------
Total Dipole Moment    :     -0.26125      -0.23984      -0.54219
                        -----------------------------------------
Magnitude (a.u.)       :      0.64788
Magnitude (Debye)      :      1.64678

                             ****ORCA TERMINATED NORMALLY****
TOTAL RUN TIME: 0 days 0 hours 0 minutes 1 seconds 94 msec
