                         Program Version 3.0.3 - RELEASE   -
|  1> # ----------------------------------------------------------------
|  2> #            Orca input file - metylamine
|  3> # ----------------------------------------------------------------
|  4> ! B3LYP
|  5> !  6-31G CHELPG
|  6> * xyz   0   1
|  7> C  -3.191900 2.116100 -0.128200
|  8> H  -2.080400 2.126000 -0.116900
|  9> N  -3.679300 1.232000 0.839200
| 10> H  -3.575100 1.837500 -1.133700
| 11> H  -3.549700 3.139400 0.107600
| 12> H  -3.355300 0.287600 0.630800
| 13> H  -4.699100 1.250500 0.833700
| 14> *
| 15>
| 16>                          ****END OF INPUT****

CARTESIAN COORDINATES (ANGSTROEM)
---------------------------------
  C     -3.191900    2.116100   -0.128200
  H     -2.080400    2.126000   -0.116900
  N     -3.679300    1.232000    0.839200
  H     -3.575100    1.837500   -1.133700
  H     -3.549700    3.139400    0.107600
  H     -3.355300    0.287600    0.630800
  H     -4.699100    1.250500    0.833700

 Total Charge           Charge          ....    0
 Multiplicity           Mult            ....    1
 Number of Electrons    NEL             ....   18
 Basis Dimension        Dim             ....   28

ORBITAL ENERGIES
----------------

  NO   OCC          E(Eh)            E(eV)
   0   2.0000     -14.295244      -388.9934
   1   2.0000     -10.190537      -277.2986
   2   2.0000      -0.892588       -24.2886
   3   2.0000      -0.646474       -17.5915
   4   2.0000      -0.497089       -13.5265
   5   2.0000      -0.437738       -11.9115
   6   2.0000      -0.405928       -11.0459
   7   2.0000      -0.357247        -9.7212
   8   2.0000      -0.207867        -5.6563
   9   0.0000       0.081257         2.2111
  10   0.0000       0.144622         3.9354
  11   0.0000       0.146864         3.9964
  12   0.0000       0.175249         4.7688
  13   0.0000       0.186171         5.0660

MULLIKEN ATOMIC CHARGES
-----------------------
   0 C :   -0.273595
   1 H :    0.146659
   2 N :   -0.652962
   3 H :    0.099102
   4 H :    0.143425
   5 H :    0.267455
   6 H :    0.269916
Sum of atomic charges:   -0.0000000

LOEWDIN ATOMIC CHARGES
----------------------
   0 C :   -0.226662
   1 H :    0.107185
   2 N :   -0.442753
   3 H :    0.065662
   4 H :    0.104696
   5 H :    0.195230
   6 H :    0.196642

  Mayer bond orders larger than 0.1
B(  0-C ,  1-H ) :   0.9528 B(  0-C ,  2-N ) :   0.9396 B(  0-C ,  3-H ) :   0.9423
B(  0-C ,  4-H ) :   0.9539 B(  2-N ,  5-H ) :   0.8815 B(  2-N ,  6-H ) :   0.8810

FINAL SINGLE POINT ENERGY       -95.751793474079

DIPOLE MOMENT
-------------
                                X             Y             Z
Electronic contribution:     -0.26941      -0.58361       0.74519
Nuclear contribution   :      0.00809       0.34373      -1.28738
                        -----------------------------------------
Total Dipole Moment    :     -0.26132      -0.23988      -0.54219
                        -----------------------------------------
Magnitude (a.u.)       :      0.64792
Magnitude (Debye)      :      1.64689

                             ****ORCA TERMINATED NORMALLY****
TOTAL RUN TIME: 0 days 0 hours 0 minutes 1 seconds 935 msec
