                         Program Version 3.0.3 - RELEASE   -
|  1> # ================================================================
|  2> # Orca input file made in Gabedit
|  3> # ================================================================
|  4> ! HF
|  5> !  3-21G CHELPG
|  6> * xyz 0   1
|  7> C  -8.552000 1.288900 0.012900
|  8> C  -7.260500 2.099900 0.066500
|  9> H  -8.627300 0.745300 -0.952900
| 10> H  -9.423600 1.970400 0.106400
| 11> H  -8.582300 0.556500 0.847600
| 12> C  -6.032200 1.192200 -0.061800
| 13> H  -7.221500 2.647800 1.033300
| 14> H  -7.266200 2.840000 -0.763300
| 15> C  -4.740500 2.002400 -0.000900
| 16> H  -4.708300 2.741400 -0.829600
| 17> H  -3.868900 1.321300 -0.097600
| 18> H  -4.666900 2.538300 0.969500
| 19> H  -6.069600 0.647900 -1.030700
| 20> H  -6.028100 0.449000 0.765200
| 21> *
| 22>
| 23>                          ****END OF INPUT****

CARTESIAN COORDINATES (ANGSTROEM)
---------------------------------
  C     -8.552000    1.288900    0.012900
  C     -7.260500    2.099900    0.066500
  H     -8.627300    0.745300   -0.952900
  H     -9.423600    1.970400    0.106400
  H     -8.582300    0.556500    0.847600
  C     -6.032200    1.192200   -0.061800
  H     -7.221500    2.647800    1.033300
  H     -7.266200    2.840000   -0.763300
  C     -4.740500    2.002400   -0.000900
  H     -4.708300    2.741400   -0.829600
  H     -3.868900    1.321300   -0.097600
  H     -4.666900    2.538300    0.969500
  H     -6.069600    0.647900   -1.030700
  H     -6.028100    0.449000    0.765200

 Total Charge           Charge          ....    0
 Multiplicity           Mult            ....    1
 Number of Electrons    NEL             ....   34
 Basis Dimension        Dim             ....   56

ORBITAL ENERGIES
----------------

  NO   OCC          E(Eh)            E(eV)
   0   2.0000     -11.163080      -303.7628
   1   2.0000     -11.162863      -303.7570
   2   2.0000     -11.157281      -303.6050
   3   2.0000     -11.157068      -303.5993
   4   2.0000      -1.072903       -29.1952
   5   2.0000      -0.980020       -26.6677
   6   2.0000      -0.851793       -23.1785
   7   2.0000      -0.780720       -21.2445
   8   2.0000      -0.641447       -17.4547
   9   2.0000      -0.584113       -15.8945
  10   2.0000      -0.570375       -15.5207
  11   2.0000      -0.566499       -15.4152
  12   2.0000      -0.507920       -13.8212
  13   2.0000      -0.488625       -13.2962
  14   2.0000      -0.462403       -12.5826
  15   2.0000      -0.456178       -12.4132
  16   2.0000      -0.445734       -12.1290
  17   0.0000       0.259963         7.0739
  18   0.0000       0.290873         7.9151
  19   0.0000       0.296203         8.0601
  20   0.0000       0.313487         8.5304
  21   0.0000       0.339242         9.2312

MULLIKEN ATOMIC CHARGES
-----------------------
   0 C :   -0.563654
   1 C :   -0.407037
   2 H :    0.191324
   3 H :    0.192360
   4 H :    0.191325
   5 C :   -0.407034
   6 H :    0.197830
   7 H :    0.197857
   8 C :   -0.563631
   9 H :    0.191330
  10 H :    0.192352
  11 H :    0.191289
  12 H :    0.197841
  13 H :    0.197848
Sum of atomic charges:   -0.0000000

LOEWDIN ATOMIC CHARGES
----------------------
   0 C :   -0.253684
   1 C :   -0.160729
   2 H :    0.084536
   3 H :    0.084710
   4 H :    0.084531
   5 C :   -0.160736
   6 H :    0.080307
   7 H :    0.080339
   8 C :   -0.253682
   9 H :    0.084535
  10 H :    0.084708
  11 H :    0.084523
  12 H :    0.080333
  13 H :    0.080309

  Mayer bond orders larger than 0.1
B(  0-C ,  1-C ) :   0.9119 B(  0-C ,  2-H ) :   0.9305 B(  0-C ,  3-H ) :   0.9343
B(  0-C ,  4-H ) :   0.9305 B(  1-C ,  5-C ) :   0.8957 B(  1-C ,  6-H ) :   0.9258
B(  1-C ,  7-H ) :   0.9258 B(  5-C ,  8-C ) :   0.9119 B(  5-C , 12-H ) :   0.9258
B(  5-C , 13-H ) :   0.9258 B(  8-C ,  9-H ) :   0.9305 B(  8-C , 10-H ) :   0.9343
B(  8-C , 11-H ) :   0.9305

FINAL SINGLE POINT ENERGY      -156.427054152350

DIPOLE MOMENT
-------------
                                X             Y             Z
Electronic contribution:     -0.00025       0.00044      -0.00474
Nuclear contribution   :      0.00023      -0.00047       0.00477
                        -----------------------------------------
Total Dipole Moment    :     -0.00002      -0.00002       0.00003
                        -----------------------------------------
Magnitude (a.u.)       :      0.00004
Magnitude (Debye)      :      0.00010

                             ****ORCA TERMINATED NORMALLY****
TOTAL RUN TIME: 0 days 0 hours 0 minutes 3 seconds 820 msec
